 Entering Gaussian System, Link 0=/apps/gaussian/g09e01/g09/g09
 AtFile(1): /home/507/lxw507/Basis/6-31pGd.gbs
 Initial command:
 /apps/gaussian/g09e01/g09/l1.exe "/jobfs/local/6361063.r-man2/Gau-21906.inp" -scrdir="/jobfs/local/6361063.r-man2/"
 Entering Link 1 = /apps/gaussian/g09e01/g09/l1.exe PID=     21907.
  
 Copyright (c) 1988,1990,1992,1993,1995,1998,2003,2009,2015,
            Gaussian, Inc.  All Rights Reserved.
  
 This is part of the Gaussian(R) 09 program.  It is based on
 the Gaussian(R) 03 system (copyright 2003, Gaussian, Inc.),
 the Gaussian(R) 98 system (copyright 1998, Gaussian, Inc.),
 the Gaussian(R) 94 system (copyright 1995, Gaussian, Inc.),
 the Gaussian 92(TM) system (copyright 1992, Gaussian, Inc.),
 the Gaussian 90(TM) system (copyright 1990, Gaussian, Inc.),
 the Gaussian 88(TM) system (copyright 1988, Gaussian, Inc.),
 the Gaussian 86(TM) system (copyright 1986, Carnegie Mellon
 University), and the Gaussian 82(TM) system (copyright 1983,
 Carnegie Mellon University). Gaussian is a federally registered
 trademark of Gaussian, Inc.
  
 This software contains proprietary and confidential information,
 including trade secrets, belonging to Gaussian, Inc.
  
 This software is provided under written license and may be
 used, copied, transmitted, or stored only in accord with that
 written license.
  
 The following legend is applicable only to US Government
 contracts under FAR:
  
                    RESTRICTED RIGHTS LEGEND
  
 Use, reproduction and disclosure by the US Government is
 subject to restrictions as set forth in subparagraphs (a)
 and (c) of the Commercial Computer Software - Restricted
 Rights clause in FAR 52.227-19.
  
 Gaussian, Inc.
 340 Quinnipiac St., Bldg. 40, Wallingford CT 06492
  
  
 ---------------------------------------------------------------
 Warning -- This program may not be used in any manner that
 competes with the business of Gaussian, Inc. or will provide
 assistance to any competitor of Gaussian, Inc.  The licensee
 of this program is prohibited from giving any competitor of
 Gaussian, Inc. access to this program.  By using this program,
 the user acknowledges that Gaussian, Inc. is engaged in the
 business of creating and licensing software in the field of
 computational chemistry and represents and warrants to the
 licensee that it is not a competitor of Gaussian, Inc. and that
 it will not use this program in any manner prohibited above.
 ---------------------------------------------------------------
  

 Cite this work as:
 Gaussian 09, Revision E.01,
 M. J. Frisch, G. W. Trucks, H. B. Schlegel, G. E. Scuseria, 
 M. A. Robb, J. R. Cheeseman, G. Scalmani, V. Barone, B. Mennucci, 
 G. A. Petersson, H. Nakatsuji, M. Caricato, X. Li, H. P. Hratchian, 
 A. F. Izmaylov, J. Bloino, G. Zheng, J. L. Sonnenberg, M. Hada, 
 M. Ehara, K. Toyota, R. Fukuda, J. Hasegawa, M. Ishida, T. Nakajima, 
 Y. Honda, O. Kitao, H. Nakai, T. Vreven, J. A. Montgomery, Jr., 
 J. E. Peralta, F. Ogliaro, M. Bearpark, J. J. Heyd, E. Brothers, 
 K. N. Kudin, V. N. Staroverov, T. Keith, R. Kobayashi, J. Normand, 
 K. Raghavachari, A. Rendell, J. C. Burant, S. S. Iyengar, J. Tomasi, 
 M. Cossi, N. Rega, J. M. Millam, M. Klene, J. E. Knox, J. B. Cross, 
 V. Bakken, C. Adamo, J. Jaramillo, R. Gomperts, R. E. Stratmann, 
 O. Yazyev, A. J. Austin, R. Cammi, C. Pomelli, J. W. Ochterski, 
 R. L. Martin, K. Morokuma, V. G. Zakrzewski, G. A. Voth, 
 P. Salvador, J. J. Dannenberg, S. Dapprich, A. D. Daniels, 
 O. Farkas, J. B. Foresman, J. V. Ortiz, J. Cioslowski, 
 and D. J. Fox, Gaussian, Inc., Wallingford CT, 2013.
 
 ******************************************
 Gaussian 09:  ES64L-G09RevE.01 30-Nov-2015
                23-Apr-2018 
 ******************************************
 %chk=urea.smd.h2o.chk
 %mem=5368709120
 %nproc=4
 Will use up to    4 processors via shared memory.
 --------------------------------------------------------------------
 # CCSD(T)/Gen 6D SCF=Tight SCRF=(SMD,Solvent=h2o) maxdisk=3489660928
 --------------------------------------------------------------------
 1/38=1/1;
 2/12=2,17=6,18=5,40=1/2;
 3/5=7,8=2,11=9,16=1,25=1,30=1,70=32201,72=1/1,2,3;
 4//1;
 5/5=2,32=2,38=5,53=1/2;
 8/6=4,9=120000,10=1/1,4;
 9/5=7,14=2/13;
 6/7=2,8=2,9=2,10=2/1;
 99/5=1,9=1/99;
 ------------
 urea.smd.h2o
 ------------
 Symbolic Z-matrix:
 Charge =  0 Multiplicity = 1
 C                    -0.51031   1.21555  -0.35156 
 N                    -1.65851   1.78859  -0.80148 
 O                     0.58277   1.40549  -0.91794 
 H                    -1.63282   2.17103  -1.73831 
 H                    -2.55486   1.44814  -0.47447 
 N                    -0.60476   0.49744   0.79913 
 H                    -1.50856   0.16802   1.11676 
 H                     0.19666  -0.07136   1.04149 
 
                          Input orientation:                          
 ---------------------------------------------------------------------
 Center     Atomic      Atomic             Coordinates (Angstroms)
 Number     Number       Type             X           Y           Z
 ---------------------------------------------------------------------
      1          6           0       -0.510311    1.215548   -0.351563
      2          7           0       -1.658513    1.788590   -0.801483
      3          8           0        0.582774    1.405495   -0.917944
      4          1           0       -1.632818    2.171026   -1.738314
      5          1           0       -2.554856    1.448144   -0.474468
      6          7           0       -0.604760    0.497443    0.799134
      7          1           0       -1.508557    0.168018    1.116756
      8          1           0        0.196660   -0.071364    1.041493
 ---------------------------------------------------------------------
                    Distance matrix (angstroms):
                    1          2          3          4          5
     1  C    0.000000
     2  N    1.359843   0.000000
     3  O    1.245673   2.276772   0.000000
     4  H    2.023868   1.012211   2.483525   0.000000
     5  H    2.061400   1.013051   3.169103   1.723374   0.000000
     6  N    1.359669   2.310721   2.276655   3.208805   2.515704
     7  H    2.061498   2.515627   3.169388   3.489829   2.294658
     8  H    2.023995   3.208996   2.483866   4.012808   3.489682
                    6          7          8
     6  N    0.000000
     7  H    1.013041   0.000000
     8  H    1.012202   1.723581   0.000000
 Stoichiometry    CH4N2O
 Framework group  C1[X(CH4N2O)]
 Deg. of freedom    18
 Full point group                 C1      NOp   1
 Largest Abelian subgroup         C1      NOp   1
 Largest concise Abelian subgroup C1      NOp   1
                         Standard orientation:                         
 ---------------------------------------------------------------------
 Center     Atomic      Atomic             Coordinates (Angstroms)
 Number     Number       Type             X           Y           Z
 ---------------------------------------------------------------------
      1          6           0       -0.000041    0.121169   -0.000870
      2          7           0        1.155376   -0.594042   -0.052404
      3          8           0        0.000016    1.366789    0.010642
      4          1           0        2.006334   -0.089213    0.161111
      5          1           0        1.147349   -1.583247    0.165958
      6          7           0       -1.155345   -0.593912   -0.052187
      7          1           0       -1.147308   -1.583683    0.163548
      8          1           0       -2.006474   -0.089507    0.161603
 ---------------------------------------------------------------------
 Rotational constants (GHZ):     11.2297432     10.4583748      5.4350921
 General basis read from cards:  (6D, 7F)
 There are    84 symmetry adapted cartesian basis functions of A   symmetry.
 There are    84 symmetry adapted basis functions of A   symmetry.
    84 basis functions,   144 primitive gaussians,    84 cartesian basis functions
    16 alpha electrons       16 beta electrons
       nuclear repulsion energy       123.7991789992 Hartrees.
 NAtoms=    8 NActive=    8 NUniq=    8 SFac= 1.00D+00 NAtFMM=   60 NAOKFM=F Big=F
 Integral buffers will be    131072 words long.
 Raffenetti 1 integral format.
 Two-electron integral symmetry is turned on.
 ------------------------------------------------------------------------------
 Polarizable Continuum Model (PCM)
 =================================
 Model                : PCM (using non-symmetric T matrix).
 Atomic radii         : SMD-Coulomb.
 Polarization charges : Total charges.
 Charge compensation  : None.
 Solution method      : On-the-fly selection.
 Cavity type          : VdW (van der Waals Surface) (Alpha=1.000).
 Cavity algorithm     : GePol (No added spheres)
                        Default sphere list used, NSphG=    8.
                        Lebedev-Laikov grids with approx.  5.0 points / Ang**2.
                        Smoothing algorithm: York/Karplus (Gamma=1.0000).
                        Polarization charges: spherical gaussians, with
                                              point-specific exponents (IZeta= 3).
                        Self-potential: point-specific (ISelfS= 7).
                        Self-field    : sphere-specific E.n sum rule (ISelfD= 2).
 Solvent              : Water, Eps=  78.355300 Eps(inf)=   1.777849
 ------------------------------------------------------------------------------
 Spheres list:
 ISph  on   Nord     Re0    Alpha      Xe            Ye            Ze
    1   C      1    1.8500  1.000     -0.000041      0.121169     -0.000870
    2   N      2    1.8900  1.000      1.155376     -0.594042     -0.052404
    3   O      3    1.5200  1.000      0.000016      1.366789      0.010642
    4   H      4    1.2000  1.000      2.006334     -0.089213      0.161111
    5   H      5    1.2000  1.000      1.147349     -1.583247      0.165958
    6   N      6    1.8900  1.000     -1.155345     -0.593912     -0.052187
    7   H      7    1.2000  1.000     -1.147308     -1.583683      0.163548
    8   H      8    1.2000  1.000     -2.006474     -0.089507      0.161603
 ------------------------------------------------------------------------------
 ------------------------------------------------------------------------------
 Atomic radii for non-electrostatic terms: SMD-CDS.
 ------------------------------------------------------------------------------
 Nuclear repulsion after PCM non-electrostatic terms =      123.8045002282 Hartrees.
 One-electron integrals computed using PRISM.
 NBasis=    84 RedAO= T EigKep=  2.13D-03  NBF=    84
 NBsUse=    84 1.00D-06 EigRej= -1.00D+00 NBFU=    84
 ExpMin= 4.38D-02 ExpMax= 5.48D+03 ExpMxC= 8.25D+02 IAcc=2 IRadAn=         4 AccDes= 0.00D+00
 Harris functional with IExCor=  205 and IRadAn=       4 diagonalized for initial guess.
 HarFok:  IExCor=  205 AccDes= 0.00D+00 IRadAn=         4 IDoV= 1 UseB2=F ITyADJ=14
 ICtDFT=  3500011 ScaDFX=  1.000000  1.000000  1.000000  1.000000
 FoFCou: FMM=F IPFlag=           0 FMFlag=      100000 FMFlg1=           0
         NFxFlg=           0 DoJE=T BraDBF=F KetDBF=T FulRan=T
         wScrn=  0.000000 ICntrl=     500 IOpCl=  0 I1Cent=   200000004 NGrid=           0
         NMat0=    1 NMatS0=      1 NMatT0=    0 NMatD0=    1 NMtDS0=    0 NMtDT0=    0
 Petite list used in FoFCou.
 Keep R1 ints in memory in canonical form, NReq=9913924.
 Requested convergence on RMS density matrix=1.00D-08 within 128 cycles.
 Requested convergence on MAX density matrix=1.00D-06.
 Requested convergence on             energy=1.00D-06.
 No special actions if energy rises.
 Inv3:  Mode=1 IEnd=     1529388.
 Iteration    1 A*A^-1 deviation from unit magnitude is 3.11D-15 for    701.
 Iteration    1 A*A^-1 deviation from orthogonality  is 2.56D-15 for    518    298.
 Iteration    1 A^-1*A deviation from unit magnitude is 3.00D-15 for    672.
 Iteration    1 A^-1*A deviation from orthogonality  is 6.71D-15 for    672    659.
 Error on total polarization charges =  0.02545
 SCF Done:  E(RHF) =  -224.018785237     A.U. after   12 cycles
            NFock= 12  Conv=0.77D-08     -V/T= 2.0037
 SMD-CDS (non-electrostatic) energy       (kcal/mol) =       3.34
 (included in total energy above)
 ExpMin= 4.38D-02 ExpMax= 5.48D+03 ExpMxC= 8.25D+02 IAcc=3 IRadAn=         5 AccDes= 0.00D+00
 HarFok:  IExCor=  205 AccDes= 0.00D+00 IRadAn=         5 IDoV=-2 UseB2=F ITyADJ=14
 ICtDFT= 12500011 ScaDFX=  1.000000  1.000000  1.000000  1.000000
 Range of M.O.s used for correlation:     5    84
 NBasis=    84 NAE=    16 NBE=    16 NFC=     4 NFV=     0
 NROrb=     80 NOA=    12 NOB=    12 NVA=    68 NVB=    68
 Semi-Direct transformation.
 ModeAB=           2 MOrb=            12 LenV=    5368432255
 LASXX=      2731119 LTotXX=     2731119 LenRXX=     2731119
 LTotAB=     2832912 MaxLAS=     3427200 LenRXY=     3427200
 NonZer=     5462238 LenScr=     8933376 LnRSAI=           0
 LnScr1=           0 LExtra=     1628096 Total=     16719791
 MaxDsk=  3489660928 SrtSym=           F ITran=            4
 JobTyp=0 Pass  1:  I=   1 to  12.
 (rs|ai) integrals will be sorted in core.
 SymMOI:  orbitals are not symmetric.
 Spin components of T(2) and E(2):
     alpha-alpha T2 =       0.2587231445D-01 E2=     -0.8482585761D-01
     alpha-beta  T2 =       0.1382459209D+00 E2=     -0.4629502742D+00
     beta-beta   T2 =       0.2587231445D-01 E2=     -0.8482585761D-01
 ANorm=    0.1090866880D+01
 E2 =    -0.6326019894D+00 EUMP2 =    -0.22465138722675D+03
 Keep R2 and R3 ints in memory in canonical form, NReq=13569844.
 Iterations=  50 Convergence= 0.100D-06
 Iteration Nr.   1
 **********************
 DD1Dir will call FoFMem   1 times, MxPair=       156
 NAB=    78 NAA=     0 NBB=     0.
 MP4(R+Q)=  0.97436784D-02
 E3=       -0.10931849D-01        EUMP3=      -0.22466231908D+03
 E4(DQ)=   -0.32109869D-02        UMP4(DQ)=   -0.22466553006D+03
 E4(SDQ)=  -0.10965990D-01        UMP4(SDQ)=  -0.22467328507D+03
 DE(Corr)= -0.63329066     E(Corr)=     -224.65207590    
 NORM(A)=   0.10934909D+01
 Iteration Nr.   2
 **********************
 DD1Dir will call FoFMem   1 times, MxPair=       156
 NAB=    78 NAA=     0 NBB=     0.
 DE(Corr)= -0.65067192     E(CORR)=     -224.66945716     Delta=-1.74D-02
 NORM(A)=   0.11009337D+01
 Iteration Nr.   3
 **********************
 DD1Dir will call FoFMem   1 times, MxPair=       156
 NAB=    78 NAA=     0 NBB=     0.
 DE(Corr)= -0.65150168     E(CORR)=     -224.67028692     Delta=-8.30D-04
 NORM(A)=   0.11032160D+01
 Iteration Nr.   4
 **********************
 DD1Dir will call FoFMem   1 times, MxPair=       156
 NAB=    78 NAA=     0 NBB=     0.
 DE(Corr)= -0.65339774     E(CORR)=     -224.67218297     Delta=-1.90D-03
 NORM(A)=   0.11037819D+01
 Iteration Nr.   5
 **********************
 DD1Dir will call FoFMem   1 times, MxPair=       156
 NAB=    78 NAA=     0 NBB=     0.
 DE(Corr)= -0.65355401     E(CORR)=     -224.67233925     Delta=-1.56D-04
 NORM(A)=   0.11039324D+01
 Iteration Nr.   6
 **********************
 DD1Dir will call FoFMem   1 times, MxPair=       156
 NAB=    78 NAA=     0 NBB=     0.
 DE(Corr)= -0.65356860     E(CORR)=     -224.67235383     Delta=-1.46D-05
 NORM(A)=   0.11039567D+01
 Iteration Nr.   7
 **********************
 DD1Dir will call FoFMem   1 times, MxPair=       156
 NAB=    78 NAA=     0 NBB=     0.
 DE(Corr)= -0.65356896     E(CORR)=     -224.67235420     Delta=-3.64D-07
 NORM(A)=   0.11039606D+01
 Iteration Nr.   8
 **********************
 DD1Dir will call FoFMem   1 times, MxPair=       156
 NAB=    78 NAA=     0 NBB=     0.
 DE(Corr)= -0.65356678     E(CORR)=     -224.67235202     Delta= 2.18D-06
 NORM(A)=   0.11039627D+01
 Iteration Nr.   9
 **********************
 DD1Dir will call FoFMem   1 times, MxPair=       156
 NAB=    78 NAA=     0 NBB=     0.
 DE(Corr)= -0.65356711     E(CORR)=     -224.67235235     Delta=-3.30D-07
 NORM(A)=   0.11039634D+01
 Iteration Nr.  10
 **********************
 DD1Dir will call FoFMem   1 times, MxPair=       156
 NAB=    78 NAA=     0 NBB=     0.
 DE(Corr)= -0.65356742     E(CORR)=     -224.67235266     Delta=-3.10D-07
 NORM(A)=   0.11039638D+01
 Iteration Nr.  11
 **********************
 DD1Dir will call FoFMem   1 times, MxPair=       156
 NAB=    78 NAA=     0 NBB=     0.
 DE(Corr)= -0.65356755     E(CORR)=     -224.67235279     Delta=-1.27D-07
 NORM(A)=   0.11039640D+01
 Iteration Nr.  12
 **********************
 DD1Dir will call FoFMem   1 times, MxPair=       156
 NAB=    78 NAA=     0 NBB=     0.
 DE(Corr)= -0.65356768     E(CORR)=     -224.67235291     Delta=-1.28D-07
 NORM(A)=   0.11039641D+01
 Iteration Nr.  13
 **********************
 DD1Dir will call FoFMem   1 times, MxPair=       156
 NAB=    78 NAA=     0 NBB=     0.
 DE(Corr)= -0.65356769     E(CORR)=     -224.67235293     Delta=-1.50D-08
 NORM(A)=   0.11039642D+01
 Largest amplitude= 3.45D-02
 T4(AAA)= -0.60634015D-03
 T4(AAB)= -0.10016249D-01
 T5(AAA)=  0.60864295D-04
 T5(AAB)=  0.76846495D-03
 Time for triples=       39.97 seconds.
 T4(CCSD)= -0.21245178D-01
 T5(CCSD)=  0.16586585D-02
 CCSD(T)= -0.22469193945D+03
 Discarding MO integrals.

 **********************************************************************

            Population analysis using the SCF density.

 **********************************************************************

 Orbital symmetries:
       Occupied  (A) (A) (A) (A) (A) (A) (A) (A) (A) (A) (A) (A)
                 (A) (A) (A) (A)
       Virtual   (A) (A) (A) (A) (A) (A) (A) (A) (A) (A) (A) (A)
                 (A) (A) (A) (A) (A) (A) (A) (A) (A) (A) (A) (A)
                 (A) (A) (A) (A) (A) (A) (A) (A) (A) (A) (A) (A)
                 (A) (A) (A) (A) (A) (A) (A) (A) (A) (A) (A) (A)
                 (A) (A) (A) (A) (A) (A) (A) (A) (A) (A) (A) (A)
                 (A) (A) (A) (A) (A) (A) (A) (A)
 The electronic state is 1-A.
 Alpha  occ. eigenvalues --  -20.54311 -15.58824 -15.58820 -11.39845  -1.40048
 Alpha  occ. eigenvalues --   -1.23728  -1.17864  -0.83087  -0.74003  -0.72924
 Alpha  occ. eigenvalues --   -0.64010  -0.62223  -0.60603  -0.46529  -0.43460
 Alpha  occ. eigenvalues --   -0.42209
 Alpha virt. eigenvalues --    0.07602   0.09923   0.10368   0.11221   0.18322
 Alpha virt. eigenvalues --    0.18869   0.19943   0.20689   0.21896   0.24031
 Alpha virt. eigenvalues --    0.24698   0.29284   0.33002   0.33094   0.35649
 Alpha virt. eigenvalues --    0.36041   0.36551   0.38696   0.41713   0.42528
 Alpha virt. eigenvalues --    0.47850   0.51896   0.65484   0.68124   0.91779
 Alpha virt. eigenvalues --    0.95084   0.97377   1.04807   1.14629   1.16436
 Alpha virt. eigenvalues --    1.17625   1.20177   1.24477   1.28828   1.30401
 Alpha virt. eigenvalues --    1.32213   1.41197   1.46411   1.51423   1.53449
 Alpha virt. eigenvalues --    1.56354   1.57108   1.62005   1.66349   1.67255
 Alpha virt. eigenvalues --    1.88959   2.03054   2.05541   2.09989   2.17607
 Alpha virt. eigenvalues --    2.18341   2.28000   2.40309   2.52107   2.53541
 Alpha virt. eigenvalues --    2.68477   2.69390   2.83234   2.94611   2.95075
 Alpha virt. eigenvalues --    2.97829   3.29592   3.45178   3.46549   4.35412
 Alpha virt. eigenvalues --    4.37336   4.66004   4.84544
          Condensed to atoms (all electrons):
               1          2          3          4          5          6
     1  C    4.007619   0.334921   0.443600  -0.021072  -0.010084   0.334919
     2  N    0.334921   7.368061  -0.135148   0.301884   0.289961  -0.171361
     3  O    0.443600  -0.135148   8.670854   0.001068   0.005003  -0.135139
     4  H   -0.021072   0.301884   0.001068   0.239293  -0.007882   0.007125
     5  H   -0.010084   0.289961   0.005003  -0.007882   0.248281   0.000423
     6  N    0.334919  -0.171361  -0.135139   0.007125   0.000423   7.368331
     7  H   -0.010138   0.000459   0.005004  -0.000101   0.000777   0.289956
     8  H   -0.021036   0.007108   0.001075  -0.000049  -0.000101   0.301831
               7          8
     1  C   -0.010138  -0.021036
     2  N    0.000459   0.007108
     3  O    0.005004   0.001075
     4  H   -0.000101  -0.000049
     5  H    0.000777  -0.000101
     6  N    0.289956   0.301831
     7  H    0.248081  -0.007828
     8  H   -0.007828   0.239132
 Mulliken charges:
               1
     1  C    0.941270
     2  N   -0.995884
     3  O   -0.856318
     4  H    0.479734
     5  H    0.473623
     6  N   -0.996085
     7  H    0.473791
     8  H    0.479869
 Sum of Mulliken charges =  -0.00000
 Mulliken charges with hydrogens summed into heavy atoms:
               1
     1  C    0.941270
     2  N   -0.042527
     3  O   -0.856318
     6  N   -0.042425
 Electronic spatial extent (au):  <R**2>=            245.4442
 Charge=             -0.0000 electrons
 Dipole moment (field-independent basis, Debye):
    X=             -0.0022    Y=             -6.6519    Z=              1.8750  Tot=              6.9111
 Quadrupole moment (field-independent basis, Debye-Ang):
   XX=            -15.8572   YY=            -25.9151   ZZ=            -26.4848
   XY=              0.0042   XZ=              0.0049   YZ=             -1.7310
 Traceless Quadrupole moment (field-independent basis, Debye-Ang):
   XX=              6.8951   YY=             -3.1627   ZZ=             -3.7324
   XY=              0.0042   XZ=              0.0049   YZ=             -1.7310
 Octapole moment (field-independent basis, Debye-Ang**2):
  XXX=             -0.0107  YYY=            -26.2343  ZZZ=              1.8473  XYY=             -0.0070
  XXY=             -3.1448  XXZ=              5.5359  XZZ=             -0.0000  YZZ=              0.5131
  YYZ=              2.5807  XYZ=             -0.0117
 Hexadecapole moment (field-independent basis, Debye-Ang**3):
 XXXX=            -95.3674 YYYY=           -124.2532 ZZZZ=            -27.1578 XXXY=              0.0139
 XXXZ=              0.0034 YYYX=              0.0154 YYYZ=             -4.7143 ZZZX=              0.0055
 ZZZY=             -1.6251 XXYY=            -39.6674 XXZZ=            -32.6376 YYZZ=            -28.2877
 XXYZ=             -3.0202 YYXZ=              0.0185 ZZXY=             -0.0011
 N-N= 1.238045002282D+02 E-N=-7.741786638952D+02  KE= 2.231834371049D+02
 1\1\GINC-R2567\SP\RCCSD(T)-FC\Gen\C1H4N2O1\ROOT\23-Apr-2018\0\\# CCSD(
 T)/Gen 6D SCF=Tight SCRF=(SMD,Solvent=h2o) maxdisk=3489660928\\urea.sm
 d.h2o\\0,1\C,0,-0.5103107105,1.2155484211,-0.35156286\N,0,-1.658512544
 9,1.7885899884,-0.8014829355\O,0,0.5827742698,1.4054946093,-0.91794447
 71\H,0,-1.6328183934,2.1710260519,-1.738314103\H,0,-2.5548556016,1.448
 1440302,-0.4744684057\N,0,-0.6047603011,0.4974425244,0.7991341626\H,0,
 -1.5085567392,0.1680182863,1.1167555995\H,0,0.196660021,-0.0713639117,
 1.0414930192\\Version=ES64L-G09RevE.01\State=1-A\HF=-224.0187852\MP2=-
 224.6513872\MP3=-224.6623191\MP4D=-224.6752737\MP4DQ=-224.6655301\MP4S
 DQ=-224.6732851\CCSD=-224.6723529\CCSD(T)=-224.6919394\RMSD=7.680e-09\
 PG=C01 [X(C1H4N2O1)]\\@


 WE'RE IN THE POSITION OF A VISITOR FROM ANOTHER
 DIMENSION WHO COMES TO EARTH AND SEES A CHESS MATCH.
 ASSUMING HE KNOWS IT'S A GAME, HE'S GOT TWO PROBLEMS:
 FIRST, FIGURE OUT THE RULES, AND SECOND, FIGURE OUT HOW TO WIN.
 NINETY PERCENT OF SCIENCE (INCLUDING VIRTUALLY ALL OF CHEMISRY)
 IS IN THAT SECOND CATEGORY.  THEY'RE TRYING TO APPLY
 THE LAWS THAT ARE ALREADY KNOWN.

                     -- SHELDON GLASHOW, 1979
 Job cpu time:       0 days  0 hours  2 minutes 46.6 seconds.
 File lengths (MBytes):  RWF=    314 Int=      0 D2E=      0 Chk=      2 Scr=      1
 Normal termination of Gaussian 09 at Mon Apr 23 17:34:56 2018.
WARNING: pbs_rusage is deprecated and values produced may not be accurate


=============================================================================
                                     Resource usage:
                                       CPU time:              00:00:00
   JobId:    6361063.r-man2            Elapsed time:          00:00:30
   Project:             q95            Requested time:        12:00:00
   Service Units:      0.03 
                                       Max physical memory:        0MB
                                       Max virtual memory:         0MB
                                       Requested memory:           0MB

                                       Number of cpus:               4

                                       Max jobfs disk use:       0.0GB
                                       Requested jobfs:         26.0GB
=============================================================================

